# Probe 0 (0.168 0.263 0.05)
# Probe 1 (0.063 0.043 0.05)
# Probe 2 (0.867 0.445 0.05)
# Probe 3 (0.711 0.292 0.05)
# Probe 4 (0.412 0.329 0.05)
# Probe 5 (0.593 0.193 0.05)
# Probe 6 (0.096 0.227 0.05)
# Probe 7 (0.67 0.104 0.05)
# Probe 8 (0.814 0.064 0.05)
# Probe 9 (0.109 0.083 0.05)
# Probe 10 (0.666 0.216 0.05)
# Probe 11 (0.024 0.399 0.05)
# Probe 12 (0.56 0.276 0.05)
# Probe 13 (0.322 0.374 0.05)
# Probe 14 (0.25 0.009 0.05)
# Probe 15 (0.21 0.343 0.05)
# Probe 16 (0.277 0.128 0.05)
# Probe 17 (0.957 0.136 0.05)
# Probe 18 (0.933 0.496 0.05)
# Probe 19 (0.151 0.175 0.05)
# Probe 20 (0.461 0.409 0.05)
# Probe 21 (0.385 0.47 0.05)
# Probe 22 (0.785 0.032 0.05)
# Probe 23 (0.511 0.091 0.05)
# Probe 24 (0.488 0.458 0.05)
# Probe 25 (0.619 0.307 0.05)
# Probe 26 (0.355 0.361 0.05)
# Probe 27 (0.865 0.425 0.05)
# Probe 28 (0.976 0.163 0.05)
# Probe 29 (0.765 0.249 0.05)
# Time        0             1             2             3             4             5             6             7             8             9             10            11            12            13            14            15            16            17            18            19            20            21            22            23            24            25            26            27            28            29           
0             0             0             0             0             0             0             0             0             0             0             0             0             0             0             0             0             0             0             0             0             0             0             0             0             0             0             0             0             0             0            
0.005         0.343282      0.0193626     2.36514       0.441019      1.04223       0.131209      0.238287      0.0417281     0.0167937     0.0315939     0.169687      1.94372       0.558028      1.41381       0.0175149     0.995493      0.0612421     0.030226      2.27504       0.0848658     2.72569       6.56834       0.0152732     0.0339147     4.33508       0.78682       1.48024       1.57556       0.0414836     0.187449     
0.01          0.916944      0.0847619     3.36805       1.09299       2.23829       0.413703      0.679479      0.155501      0.0711609     0.126013      0.505298      3.50017       1.36685       2.79979       0.0785767     2.13271       0.219496      0.112943      2.58441       0.287819      4.55832       8.2874        0.0668547     0.133605      5.84003       1.78593       2.90599       2.54394       0.146987      0.535095     
0.015         1.54488       0.212516      3.85376       1.73909       3.22836       0.790678      1.20266       0.341379      0.174142      0.293079      0.923142      4.5203        2.15483       3.83232       0.200722      3.07527       0.466653      0.249588      2.68868       0.584852      5.6209        8.92399       0.167674      0.307         6.47269       2.66732       3.95823       3.11018       0.310836      0.947652     
0.02          2.13577       0.403985      4.14556       2.30149       3.98894       1.2033        1.72604       0.58247       0.325269      0.524751      1.35601       5.20258       2.83023       4.57608       0.386921      3.8039        0.775546      0.429673      2.7467        0.936903      6.27506       9.25545       0.318953      0.543399      6.81091       3.37104       4.71224       3.4787        0.516072      1.36059      
0.025         2.66218       0.650059      4.34726       2.77362       4.57345       1.61525       2.21452       0.859114      0.516993      0.805369      1.7702        5.68742       3.38903       5.12671       0.629051      4.36926       1.11945       0.640189      2.78629       1.31274       6.7138        9.46483       0.513767      0.825149      7.02347       3.92521       5.26829       3.74261       0.746379      1.74639      
0.03          3.12465       0.937291      4.49915       3.17041       5.03354       2.00958       2.65928       1.15522       0.739283      1.11872       2.15422       6.05267       3.85213       5.55079       0.913855      4.81918       1.47874       0.869963      2.81613       1.69289       7.03034       9.6123        0.741794      1.13513       7.17166       4.36897       5.69502       3.94506       0.989796      2.09835      
0.035         3.53238       1.25211       4.62025       3.50907       5.40653       2.38054       3.06244       1.45939       0.982418      1.45113       2.50711       6.34149       4.2421        5.89003       1.22748       5.18797       1.84068       1.1106        2.83999       2.06667       7.27225       9.72368       0.992602      1.45965       7.28256       4.73374       6.03526       4.1083        1.23846       2.41838      
0.04          3.89553       1.58287       4.72089       3.80379       5.71774       2.72764       3.42945       1.76407       1.23819       1.79212       2.83183       6.57902       4.57721       6.17059       1.55783       5.4988        2.19757       1.35612       2.85988       2.42875       7.46573       9.81215       1.25722       1.78875       7.37002       5.04182       6.31584       4.24503       1.48743       2.7109       
0.045         4.22281       1.92043       4.80726       4.06518       5.98418       3.05241       3.76594       2.06447       1.50019       2.13413       3.13219       6.78066       4.87097       6.4093        1.89536       5.76728       2.54494       1.60237       2.87699       2.7767        7.62627       9.88518       1.52858       2.11566       7.44184       5.30853       6.55396       4.36303       1.73362       2.98044      
0.05          4.52106       2.25804       4.88328       4.30091       6.21741       3.35696       4.07675       2.35763       1.76361       2.47189       3.41171       6.95626       5.13309       6.61728       2.23301       6.00403       2.88031       1.84648       2.89208       3.10961       7.76348       9.94735       1.80143       2.43595       7.50275       5.54439       6.76101       4.46735       1.97511       3.23083      
0.055         4.79546       2.59093       4.95155       4.51644       6.42536       3.64333       4.36574       2.6418        2.025         2.80188       3.67331       7.11235       5.37048       6.80204       2.56582       6.21638       3.20239       2.08646       2.90566       3.42734       7.88362       10.0016       2.072         2.74685       7.55576       5.75662       6.94464       4.56134       2.21066       3.46507      
0.06          5.04989       2.91585       5.01384       4.71569       6.61357       3.91332       4.63591       2.91598       2.28194       3.1218        3.91929       7.25335       5.58807       6.96876       2.89044       6.40947       3.51066       2.32097       2.91805       3.73014       7.99087       10.0499       2.33768       3.04678       7.60287       5.95029       7.11015       4.64732       2.43953       3.68547      
0.065         5.28725       3.2307        5.07137       4.90144       6.78592       4.16845       4.88954       3.17969       2.53276       3.43028       4.15147       7.38234       5.78941       7.1211        3.20474       6.58694       3.80503       2.5491        2.92951       4.01844       8.08807       10.0935       2.59673       3.33488       7.64541       6.12896       7.26123       4.7269        2.66123       3.89376      
0.07          5.50973       3.53419       5.12502       5.07574       6.94524       4.40999       5.12844       3.43279       2.77639       3.72656       4.37125       7.50149       5.9771        7.26164       3.50745       6.75143       4.08569       2.77026       2.9402        4.29277       8.17723       10.1335       2.84803       3.61085       7.68432       6.29519       7.40052       4.80121       2.8755        4.09126      
0.075         5.719         3.82561       5.1754        5.2401        7.09355       4.63902       5.35398       3.67532       3.01214       4.01029       4.57976       7.61237       6.15303       7.39228       3.7979        6.90485       4.35301       2.98411       2.95025       4.55371       8.25976       10.1704       3.09089       3.87467       7.72027       6.45082       7.52993       4.87108       3.08221       4.279        
0.08          5.91639       4.10468       5.22297       5.39562       7.23238       4.85644       5.56731       3.90748       3.23963       4.28146       4.77791       7.71611       6.31864       7.5144        4.07584       7.04864       4.60744       3.19046       2.95975       4.80184       8.33671       10.2048       3.32495       4.12655       7.75373       6.59725       7.65087       4.93711       3.28134       4.45776      
0.085         6.10295       4.37136       5.26805       5.54317       7.36287       5.06304       5.76935       4.12954       3.45868       4.54023       4.96643       7.81359       6.47504       7.62906       4.3413        7.18391       4.84949       3.38923       2.96875       5.03777       8.40882       10.2369       3.55007       4.36684       7.78506       6.73551       7.76441       4.99972       3.47293       4.62818      
0.09          6.27952       4.62585       5.31089       5.68343       7.48591       5.2595        5.96088       4.34182       3.66927       4.78689       5.14595       7.90545       6.6231        7.73707       4.59449       7.31149       5.07971       3.58045       2.97731       5.26205       8.47668       10.2671       3.76625       4.59594       7.81451       6.8664        7.87135       5.05925       3.65709       4.7908       
0.095         6.44683       4.86842       5.35169       5.81695       7.60219       5.44642       6.14258       4.54467       3.87147       5.02183       5.31702       7.99223       6.76351       7.83906       4.83576       7.43208       5.29864       3.76421       2.98546       5.47526       8.54072       10.2956       3.97362       4.8143        7.84229       6.99057       7.97233       5.11596       3.83394       4.94606      
0.1           6.60551       5.09947       5.3906        5.94416       7.71229       5.62435       6.31504       4.73845       4.06542       5.24548       5.48011       8.07433       6.89685       7.93555       5.0655        7.54624       5.50681       3.94064       2.99324       5.67793       8.60131       10.3225       4.17235       5.02237       7.86856       7.10854       8.06787       5.17006       4.00365       5.09434      
