/*--------------------------------*- C++ -*----------------------------------*\
  =========                 |
  \\      /  F ield         | OpenFOAM: The Open Source CFD Toolbox
   \\    /   O peration     | Website:  https://openfoam.org
    \\  /    A nd           | Version:  10
     \\/     M anipulation  |
\*---------------------------------------------------------------------------*/
FoamFile
{
    format      ascii;
    class       volScalarField;
    location    "0.1";
    object      gradTx;
}
// * * * * * * * * * * * * * * * * * * * * * * * * * * * * * * * * * * * * * //

dimensions      [0 -1 0 1 0 0 0];

internalField   nonuniform List<scalar> 
400
(
0.00405596
0.00639596
-0.00841016
-0.0510607
-0.13173
-0.26087
-0.448866
-0.704167
-1.02975
-1.41892
-1.85131
-2.28906
-2.67735
-2.95229
-3.05429
-2.94146
-2.59828
-2.03803
-1.30047
-0.446937
0.00517932
0.00963072
-0.00329246
-0.0441832
-0.123044
-0.250393
-0.43715
-0.692569
-1.02055
-1.41546
-1.85782
-2.30959
-2.71393
-3.00353
-3.11546
-3.00568
-2.65805
-2.08648
-1.33204
-0.457894
0.00739156
0.0160687
0.00698059
-0.0303599
-0.105642
-0.229336
-0.413357
-0.668734
-1.00126
-1.40745
-1.86981
-2.35013
-2.78737
-3.10714
-3.23948
-3.13595
-2.77929
-2.18474
-1.39606
-0.480134
0.0107748
0.0258899
0.0225142
-0.00961569
-0.0795054
-0.197398
-0.376747
-0.631446
-0.970136
-1.39261
-1.88504
-2.40946
-2.89827
-3.26547
-3.42979
-3.33602
-2.96544
-2.3356
-1.49441
-0.514315
0.0154143
0.0393
0.0434726
0.0180391
-0.0446766
-0.154214
-0.326229
-0.578888
-0.924519
-1.36738
-1.89987
-2.4856
-3.04752
-3.48224
-3.69184
-3.61169
-3.22172
-2.54327
-1.62995
-0.561473
0.0214427
0.0566242
0.070112
0.0525459
-0.00137116
-0.0994239
-0.260359
-0.508676
-0.860895
-1.32668
-1.9088
-2.57539
-3.23632
-3.76282
-4.03335
-3.97107
-3.5553
-2.81356
-1.80669
-0.62307
0.0290596
0.0783825
0.102846
0.0937507
0.0498404
-0.0328001
-0.177301
-0.417905
-0.774989
-1.26361
-1.9038
-2.67407
-3.46625
-4.11471
-4.46489
-4.42488
-3.97542
-3.15391
-2.02995
-0.701097
0.0385507
0.105399
0.142364
0.141363
0.107727
0.0455516
-0.0746988
-0.303224
-0.662078
-1.16912
-1.87319
-2.77446
-3.73934
-4.54821
-5.00055
-4.98687
-4.4934
-3.5735
-2.30667
-0.798227
0.0502952
0.138972
0.18984
0.194948
0.169881
0.134856
0.0506972
-0.160932
-0.517734
-1.03154
-1.7999
-2.8658
-4.05834
-5.07756
-5.65899
-5.67438
-5.12263
-4.0833
-2.64596
-0.918093
0.0647261
0.181131
0.247306
0.254008
0.231814
0.233072
0.203917
0.0129505
-0.33945
-0.836179
-1.65848
-2.93199
-4.42719
-5.72271
-6.4649
-6.50895
-5.87813
-4.69588
-3.05991
-1.06573
0.0821466
0.235037
0.318283
0.31836
0.285346
0.335735
0.393803
0.222788
-0.13006
-0.564897
-1.41012
-2.94884
-4.85207
-6.51216
-7.45091
-7.51718
-6.77561
-5.42499
-3.56531
-1.24835
0.102167
0.305606
0.408796
0.389196
0.31568
0.433554
0.637455
0.474006
0.0952178
-0.196094
-0.993821
-2.88021
-5.34341
-7.48746
-8.66021
-8.73195
-7.82915
-6.28422
-4.1868
-1.47651
0.122182
0.400555
0.528861
0.471877
0.296023
0.507195
0.969743
0.775334
0.294416
0.294675
-0.310326
-2.67253
-5.9197
-8.71063
-10.1495
-10.1945
-9.04671
-7.28418
-4.96313
-1.76591
0.133491
0.53241
0.69422
0.582809
0.177685
0.515593
1.46339
1.14494
0.369533
0.932586
0.808001
-2.24825
-6.61472
-10.2763
-11.9915
-11.9591
-10.4211
-8.42611
-5.95995
-2.13945
0.111637
0.723004
0.926977
0.765877
-0.128107
0.369405
2.27107
1.62585
0.106699
1.73873
2.6553
-1.5005
-7.49004
-12.3327
-14.2741
-14.1034
-11.9125
-9.68792
-7.29663
-2.62804
-0.00739502
1.01499
1.25023
1.13106
-0.783226
-0.129635
3.71329
2.3227
-0.946793
2.72058
5.76732
-0.297823
-8.6556
-15.1178
-17.0879
-16.7555
-13.4147
-10.9932
-9.20374
-3.26388
-0.385847
1.50337
1.66144
1.9441
-2.08152
-1.42751
6.46209
3.48719
-3.73687
3.85498
11.1545
1.47511
-10.298
-19.0287
-20.4801
-20.1622
-14.6889
-12.142
-12.1494
-4.04701
-1.42963
2.42425
2.04099
3.8335
-4.55066
-4.53546
11.9256
5.71233
-10.2328
5.06042
20.7842
3.76918
-12.7032
-24.7617
-24.3167
-24.8595
-15.2332
-12.6533
-17.1231
-4.8283
-4.15176
4.4042
1.87624
8.26655
-9.12032
-11.7557
23.0567
10.3693
-24.5396
6.15673
38.597
5.92596
-16.2136
-33.6221
-27.9079
-32.1005
-14.017
-11.403
-26.2886
-4.95021
-11.0888
9.15499
-0.5183
18.6436
-17.3783
-28.3385
46.0621
20.5808
-55.2486
6.81616
72.6867
5.44887
-20.9077
-48.2641
-29.0233
-44.9113
-8.93405
-5.77825
-44.5103
-2.21274
)
;

boundaryField
{
    scalarinlet
    {
        type            calculated;
        value           nonuniform List<scalar> 
20
(
-11.0888
9.15499
-0.5183
18.6436
-17.3783
-28.3385
46.0621
20.5808
-55.2486
6.81616
72.6867
5.44887
-20.9077
-48.2641
-29.0233
-44.9113
-8.93405
-5.77825
-44.5103
-2.21274
)
;
    }
    walls
    {
        type            calculated;
        value           nonuniform List<scalar> 
60
(
0
0
0
0
0
0
0
0
0
0
0
0
0
0
0
0
0
0
0
0
0
0
0
0
0
0
0
0
0
0
0
0
0
0
0
0
0
0
0
0
0.00405596
0.00639596
-0.00841016
-0.0510607
-0.13173
-0.26087
-0.448866
-0.704167
-1.02975
-1.41892
-1.85131
-2.28906
-2.67735
-2.95229
-3.05429
-2.94146
-2.59828
-2.03803
-1.30047
-0.446937
)
;
    }
    frontAndBack
    {
        type            empty;
    }
}


// ************************************************************************* //
