/*--------------------------------*- C++ -*----------------------------------*\
  =========                 |
  \\      /  F ield         | OpenFOAM: The Open Source CFD Toolbox
   \\    /   O peration     | Website:  https://openfoam.org
    \\  /    A nd           | Version:  10
     \\/     M anipulation  |
\*---------------------------------------------------------------------------*/
FoamFile
{
    format      ascii;
    class       volScalarField;
    location    "0.1";
    object      gradTy;
}
// * * * * * * * * * * * * * * * * * * * * * * * * * * * * * * * * * * * * * //

dimensions      [0 -1 0 1 0 0 0];

internalField   nonuniform List<scalar> 
400
(
0.579679
0.581926
0.586149
0.592161
0.599904
0.609531
0.620859
0.632963
0.644055
0.651358
0.650972
0.638325
0.609897
0.565177
0.507416
0.44283
0.378986
0.323291
0.28208
0.260167
1.73517
1.74184
1.75451
1.77262
1.79592
1.8248
1.85899
1.89581
1.92985
1.95278
1.9528
1.91577
1.83066
1.69574
1.52096
1.32535
1.13198
0.96333
0.83855
0.772158
2.87876
2.88995
2.91128
2.94156
2.98041
3.02864
3.0864
3.14945
3.20865
3.25027
3.25435
3.19584
3.05462
2.82715
2.53074
2.19848
1.87005
1.58371
1.37181
1.25897
4.00235
4.0184
4.04882
4.09138
4.14561
4.21332
4.29586
4.38757
4.47555
4.54106
4.55568
4.48094
4.28473
3.96064
3.53454
3.05593
2.58305
2.17109
1.86599
1.70331
5.09805
5.11939
5.15952
5.21458
5.28384
5.37085
5.47979
5.60363
5.72533
5.82211
5.85719
5.77459
5.52533
5.09849
4.53063
3.89138
3.26053
2.71165
2.3046
2.08709
6.1579
6.18519
6.23606
6.30393
6.38748
6.49297
6.63031
6.79082
6.95228
7.08988
7.15982
7.08203
6.78288
6.24456
5.51793
4.69846
3.89157
3.19105
2.6703
2.39106
7.17387
7.20809
7.27142
7.35259
7.44906
7.57079
7.73901
7.94211
8.14991
8.33974
8.46503
8.41095
8.0669
7.40491
6.49613
5.47052
4.46453
3.59432
2.94465
2.59434
8.13785
8.18033
8.25903
8.35431
8.46143
8.59439
8.79674
9.05039
9.31069
9.5649
9.77482
9.77269
9.39135
8.58852
7.46566
6.20031
4.96664
3.9059
3.10786
2.67387
9.0416
9.09395
9.19306
9.30383
9.41835
9.552
9.79339
10.1092
10.4257
10.7545
11.0916
11.1839
10.7766
9.80823
8.42755
6.87953
5.38339
4.11007
3.13862
2.6036
9.87668
9.94039
10.0688
10.1973
10.3156
10.4282
10.7174
11.1144
11.4848
11.8898
12.4181
12.6693
12.2521
11.0819
9.38285
7.49801
5.69726
4.19206
3.01387
2.35335
10.6346
10.7095
10.8836
11.0325
11.1539
11.2002
11.5549
12.0673
12.477
12.9366
13.7572
14.2659
13.8607
12.4335
10.3313
8.04287
5.88526
4.14084
2.7086
1.88705
11.3073
11.3873
11.6383
11.8085
11.9453
11.8299
12.2883
12.9817
13.3934
13.8307
15.1125
16.0303
15.6651
13.895
11.2682
8.49785
5.91349
3.95563
2.19511
1.16
11.8884
11.951
12.342
12.5219
12.7292
12.2459
12.8933
13.8978
14.2352
14.4464
16.4925
18.05
17.7565
15.5074
12.1787
8.84488
5.72439
3.661
1.44059
0.114708
12.3778
12.3567
13.0226
13.1529
13.6106
12.3046
13.3351
14.9073
15.0361
14.5319
17.9242
20.4631
20.2683
17.3224
13.0241
9.07324
5.20646
3.34171
0.398966
-1.3253
12.7922
12.5104
13.7574
13.6225
14.8539
11.7006
13.5634
16.2004
15.9189
13.5678
19.4949
23.4864
23.3958
19.4046
13.7129
9.2117
4.12001
3.22458
-1.01416
-3.26301
13.1933
12.1984
14.7541
13.6673
17.1105
9.76045
13.5167
18.1425
17.2394
10.4554
21.4719
27.4538
27.4231
21.8379
14.0311
9.42582
1.91343
3.8729
-2.99462
-5.83256
13.7563
10.9119
16.5748
12.4934
21.9797
4.95851
13.1681
21.3831
19.9473
2.81115
24.627
32.8449
32.761
24.7497
13.4732
10.2921
-2.73477
6.65504
-6.0549
-9.18374
14.9411
7.40924
20.7427
7.83884
33.3876
-6.23877
12.7312
26.9504
26.4953
-14.6551
31.0988
40.23
40.0005
28.3987
10.8137
13.5432
-13.0629
14.8871
-11.585
-13.3914
17.9175
-1.40086
31.379
-6.51944
60.9991
-32.1746
13.3931
36.0984
43.1301
-53.9332
46.6416
49.8719
50.001
33.4629
2.99601
24.0497
-37.1075
36.6481
-23.3575
-18.1264
25.631
-23.3279
59.5926
-47.3238
128.692
-92.8866
19.6807
49.0757
85.7006
-142.708
86.4348
60.2046
64.0851
41.9273
-17.7824
55.0296
-94.9588
91.7717
-51.5164
-21.6305
)
;

boundaryField
{
    scalarinlet
    {
        type            calculated;
        value           nonuniform List<scalar> 
20
(
31.1987
-38.9709
80.1188
-77.3845
176.81
-135.478
25.1178
56.4244
116.311
-204.307
115.142
65.1593
72.351
47.3813
-32.8158
78.0474
-135.925
131.2
-71.5393
-22.7174
)
;
    }
    walls
    {
        type            calculated;
        value           nonuniform List<scalar> 
60
(
0.579679
1.73517
2.87876
4.00235
5.09805
6.1579
7.17387
8.13785
9.0416
9.87668
10.6346
11.3073
11.8884
12.3778
12.7922
13.1933
13.7563
14.9411
17.9175
25.631
0.260167
0.772158
1.25897
1.70331
2.08709
2.39106
2.59434
2.67387
2.6036
2.35335
1.88705
1.16
0.114708
-1.3253
-3.26301
-5.83256
-9.18374
-13.3914
-18.1264
-21.6305
0
0
0
0
0
0
0
0
0
0
0
0
0
0
0
0
0
0
0
0
)
;
    }
    frontAndBack
    {
        type            empty;
    }
}


// ************************************************************************* //
