/*--------------------------------*- C++ -*----------------------------------*\
  =========                 |
  \\      /  F ield         | OpenFOAM: The Open Source CFD Toolbox
   \\    /   O peration     | Website:  https://openfoam.org
    \\  /    A nd           | Version:  10
     \\/     M anipulation  |
\*---------------------------------------------------------------------------*/
FoamFile
{
    format      ascii;
    class       volScalarField;
    location    "0.1";
    object      T;
}
// * * * * * * * * * * * * * * * * * * * * * * * * * * * * * * * * * * * * * //

dimensions      [0 0 0 1 0 0 0];

internalField   nonuniform List<scalar> 
400
(
5.06997
5.07037
5.07061
5.06953
5.0655
5.05636
5.03941
5.01147
4.969
4.9085
4.82711
4.72337
4.5982
4.45563
4.30297
4.1502
4.00882
3.89038
3.80502
3.76033
5.09895
5.09947
5.09991
5.09914
5.0955
5.08684
5.07046
5.04312
5.0012
4.94107
4.85965
4.75528
4.62869
4.48389
4.32834
4.17235
4.02777
3.90654
3.81913
3.77334
5.15673
5.15747
5.15833
5.15816
5.1553
5.1476
5.13236
5.10626
5.06549
5.00614
4.92475
4.81916
4.68973
4.54042
4.37902
4.21647
4.06542
3.93854
3.84695
3.79894
5.24289
5.24397
5.24548
5.24622
5.24452
5.23827
5.22478
5.20059
5.16163
5.10358
5.02237
4.91508
4.78143
4.62525
4.45488
4.28227
4.12128
3.98573
3.88772
3.83629
5.35684
5.35839
5.36077
5.36273
5.36258
5.35826
5.34716
5.32564
5.28927
5.23319
5.15253
5.0432
4.90397
4.73845
4.55575
4.36927
4.19458
4.0471
3.94025
3.8841
5.49779
5.49994
5.50345
5.50695
5.50871
5.50681
5.49877
5.48077
5.4479
5.39469
5.31523
5.20381
5.05769
4.88017
4.68141
4.47684
4.2843
4.12131
4.00295
3.94064
5.66474
5.66764
5.67258
5.67793
5.68195
5.68291
5.67867
5.66518
5.63688
5.58768
5.51052
5.3973
5.24311
5.05068
4.83164
4.60419
4.38915
4.20665
4.07376
4.00365
5.85649
5.86034
5.86703
5.87458
5.88116
5.88535
5.88572
5.87788
5.85539
5.81167
5.73848
5.62435
5.46104
5.25042
5.00622
4.75036
4.50753
4.30102
4.15018
4.07036
6.07163
6.07666
6.08553
6.09564
6.10502
6.11263
6.11851
6.1177
6.10242
6.06593
5.99926
5.88594
5.71268
5.48011
5.20493
4.91421
4.63749
4.40194
4.22916
4.13735
6.30857
6.31504
6.32668
6.33977
6.35208
6.36295
6.37539
6.38334
6.37668
6.3494
6.29306
6.18355
5.99986
5.74083
5.42759
5.09434
4.7767
4.50653
4.30711
4.20054
6.56547
6.57368
6.58897
6.60551
6.62081
6.63404
6.65438
6.67342
6.67666
6.66042
6.62017
6.51941
6.32528
6.0342
5.67407
5.28911
4.92235
4.61155
4.37985
4.25502
6.8403
6.85051
6.87086
6.89139
6.90978
6.92296
6.95313
6.98671
7.00053
6.99623
6.98092
6.89685
6.6929
6.36251
5.94416
5.49648
5.07096
4.71357
4.44254
4.29489
7.13083
7.14305
7.17088
7.19593
7.21807
7.22554
7.26879
7.32251
7.34633
7.35195
7.37579
7.32092
7.10854
6.72895
6.23748
5.714
5.21802
4.80933
4.48961
4.31302
7.43472
7.44806
7.48796
7.51749
7.54624
7.53526
7.5978
7.68159
7.71229
7.71855
7.80555
7.79935
7.58072
7.13788
6.55309
5.93873
5.35718
4.89662
4.51457
4.30062
7.74972
7.76088
7.82202
7.85358
7.8986
7.84077
7.93555
8.06787
8.09813
8.07854
8.272
8.34407
8.12195
7.59507
6.88868
6.16766
5.47835
4.97641
4.50955
4.24675
8.07433
8.07359
8.17582
8.19861
8.28893
8.12029
8.27597
8.49162
8.50824
8.39694
8.7803
8.97367
8.75051
8.10811
7.23874
6.39931
5.56318
5.05785
4.46386
4.13747
8.40938
8.3708
8.55972
8.53694
8.75413
8.32879
8.61138
8.975
8.9601
8.60131
9.3456
9.71676
9.49311
8.68696
7.59024
6.63895
5.57402
5.17006
4.35982
3.95512
8.76214
8.61918
9.00457
8.82328
9.38792
8.36821
8.93437
9.56077
9.5056
8.53749
10.0116
10.6159
10.3886
9.34559
7.9124
6.91392
5.42644
5.3906
4.16112
3.67829
9.15644
8.74126
9.59686
8.92888
10.4235
8.01685
9.24794
10.3225
10.2849
7.86856
10.9005
11.7283
11.4931
10.1069
8.13092
7.31611
4.92087
5.91441
3.78058
3.28555
9.65802
8.54914
10.5735
8.49731
12.4379
6.75948
9.60403
11.3657
11.6621
5.84083
12.3437
13.1095
12.8886
11.0187
8.0622
8.11641
3.57107
7.223
2.99324
2.77197
)
;

boundaryField
{
    scalarinlet
    {
        type            fixedValue;
        value           nonuniform List<scalar> 
20
(
10.048
8.062
11.575
7.53
14.648
5.066
9.918
12.071
13.116
3.287
13.783
13.924
13.793
11.611
7.652
9.092
1.872
8.863
2.099
2.488
)
;
    }
    walls
    {
        type            zeroGradient;
    }
    frontAndBack
    {
        type            empty;
    }
}


// ************************************************************************* //
